64
 i = 1 	 Energy = -254.613359 
Si   -0.055288   -0.038179   -0.073487
Si   0.021501   2.769782   2.592490
Si   2.834077   -0.012434   2.711956
Si   2.700136   2.676623   0.104924
Si   1.290896   1.310458   1.322482
Si   1.299950   3.923884   4.097662
Si   4.065198   1.421020   4.078057
Si   4.097651   4.054428   1.366673
Si   -0.075333   -0.186082   5.351841
Si   0.102567   2.644166   8.079424
Si   2.757667   -0.024603   8.192291
Si   2.641305   2.675551   5.446210
Si   1.348556   1.106564   6.591107
Si   1.480980   4.046794   9.561371
Si   4.079318   1.322685   9.578398
Si   4.002515   4.015397   6.780295
Si   0.164804   5.439113   0.001702
Si   -0.083174   8.131349   2.865923
Si   2.810913   5.298281   2.894949
Si   2.817873   7.989282   0.067356
Si   1.405915   6.777459   1.433592
Si   1.413245   9.431592   4.061895
Si   4.105385   6.686155   4.231316
Si   4.131329   9.381292   1.534841
Si   -0.110604   5.576775   5.254536
Si   -0.182813   8.110534   8.049875
Si   2.645557   5.339208   8.041946
Si   2.871740   8.195561   5.518913
Si   1.347175   6.815522   6.789208
Si   1.321104   9.306196   9.519948
Si   4.031067   6.699689   9.416631
Si   4.193594   9.421511   6.901967
Si   5.453758   -0.108360   0.091713
Si   5.540845   2.825440   2.734858
Si   8.081863   -0.057696   2.706200
Si   8.178261   2.681151   -0.019539
Si   6.742461   1.219354   1.338095
Si   6.783204   4.067419   4.372107
Si   9.439302   1.307459   4.013010
Si   9.578918   4.171812   1.423966
Si   5.467802   0.044846   5.548730
Si   5.471678   2.565291   8.037951
Si   8.183930   -0.173976   8.065950
Si   8.355230   2.680434   5.589282
Si   6.958778   1.363533   6.882221
Si   6.757148   4.090849   9.426959
Si   9.506450   1.346880   9.394572
Si   9.646037   4.172105   6.814125
Si   5.381406   5.414384   -0.012694
Si   5.538395   8.037892   2.888952
Si   8.159781   5.336361   2.850808
Si   8.226265   8.086535   0.064550
Si   6.803718   6.661635   1.398070
Si   6.955258   9.464864   4.377129
Si   9.133046   7.127992   4.174704
Si   9.476936   9.563934   1.410621
Si   5.561833   5.526113   5.699576
Si   5.515090   7.788907   8.002046
Si   7.813342   5.500012   7.945136
C   8.346800   8.518017   5.136561
C   6.415452   6.460686   7.086813
Si   6.735435   9.270620   9.484189
Si   9.446416   6.668408   9.495956
Si   9.394293   9.362807   6.595334
64
 i = 2 	 Energy = -254.616240 
Si   -0.057677   -0.031604   -0.081409
Si   0.022707   2.774505   2.599186
Si   2.844928   -0.018194   2.719254
Si   2.701243   2.677678   0.081696
Si   1.292914   1.303515   1.326835
Si   1.304329   3.935203   4.091543
Si   4.085203   1.432087   4.079809
Si   4.105790   4.053494   1.355785
Si   -0.060959   -0.188120   5.355028
Si   0.102974   2.660973   8.079268
Si   2.740500   -0.022098   8.196365
Si   2.642117   2.666267   5.442407
Si   1.350358   1.116315   6.608836
Si   1.490668   4.039315   9.549280
Si   4.079018   1.324697   9.573266
Si   4.016970   4.020059   6.759794
Si   0.184048   5.423667   0.003397
Si   -0.088976   8.114016   2.863846
Si   2.794486   5.293362   2.896643
Si   2.825017   8.001398   0.080611
Si   1.405473   6.790132   1.435179
Si   1.414264   9.449440   4.072513
Si   4.114043   6.680043   4.232133
Si   4.132933   9.378890   1.548741
Si   -0.103426   5.577287   5.266273
Si   -0.175210   8.110840   8.062645
Si   2.639335   5.331367   8.047412
Si   2.872301   8.189592   5.521392
Si   1.324566   6.803427   6.789731
Si   1.321154   9.312003   9.512778
Si   4.047108   6.707587   9.432279
Si   4.190279   9.423445   6.890145
Si   5.451820   -0.096530   0.098484
Si   5.537090   2.811309   2.747729
Si   8.076340   -0.069779   2.710364
Si   8.167707   2.686134   -0.032489
Si   6.725993   1.242711   1.342149
Si   6.791816   4.063788   4.371797
Si   9.436820   1.335461   4.017695
Si   9.586256   4.168447   1.431481
Si   5.480652   0.054883   5.533333
Si   5.471045   2.571151   8.044888
Si   8.186879   -0.173558   8.055053
Si   8.350388   2.669914   5.584441
Si   6.934329   1.363367   6.871985
Si   6.745958   4.094652   9.414756
Si   9.507752   1.354345   9.384522
Si   9.662984   4.166733   6.807141
Si   5.380538   5.392377   -0.009100
Si   5.550839   8.062585   2.911806
Si   8.148966   5.348875   2.843055
Si   8.230854   8.108982   0.081804
Si   6.797742   6.666112   1.402376
Si   6.960047   9.467193   4.368486
Si   9.147258   7.125850   4.171895
Si   9.473550   9.565067   1.416556
Si   5.553001   5.511950   5.701067
Si   5.519356   7.785462   8.019133
Si   7.798251   5.498279   7.942662
C   8.348843   8.511118   5.124178
C   6.430376   6.468094   7.095655
Si   6.739360   9.288241   9.475501
Si   9.430387   6.663656   9.499239
Si   9.393987   9.361893   6.602911
64
 i = 3 	 Energy = -254.612063 
Si   -0.057023   -0.036222   -0.076773
Si   0.020632   2.771298   2.597844
Si   2.838531   -0.025560   2.706433
Si   2.706415   2.676147   0.077483
Si   1.306951   1.304825   1.318044
Si   1.305247   3.936676   4.089673
Si   4.095939   1.419094   4.079797
Si   4.101518   4.072943   1.374091
Si   -0.040933   -0.197265   5.375012
Si   0.109077   2.653776   8.083506
Si   2.750028   -0.027292   8.191066
Si   2.637507   2.667433   5.444706
Si   1.340329   1.121324   6.601908
Si   1.481689   4.042354   9.551860
Si   4.087281   1.336133   9.564653
Si   4.010214   4.010307   6.747001
Si   0.174739   5.425625   0.008503
Si   -0.081426   8.125458   2.870168
Si   2.811019   5.280776   2.913264
Si   2.838205   8.001000   0.089700
Si   1.413902   6.781474   1.449618
Si   1.400880   9.453039   4.068076
Si   4.110919   6.688655   4.255297
Si   4.130675   9.380298   1.538857
Si   -0.098742   5.577311   5.268251
Si   -0.158627   8.116910   8.064784
Si   2.640200   5.334107   8.041297
Si   2.864868   8.204414   5.507991
Si   1.309493   6.810318   6.780905
Si   1.317408   9.314386   9.494766
Si   4.050345   6.714382   9.427612
Si   4.198629   9.427837   6.874421
Si   5.471068   -0.104333   0.099205
Si   5.536852   2.810378   2.758377
Si   8.074217   -0.073116   2.722168
Si   8.166377   2.687129   -0.029385
Si   6.722599   1.247190   1.340666
Si   6.795618   4.058198   4.355904
Si   9.438399   1.310446   4.004305
Si   9.582481   4.172422   1.449108
Si   5.481497   0.040832   5.527368
Si   5.462928   2.563290   8.033657
Si   8.172273   -0.174213   8.053943
Si   8.351269   2.673927   5.583307
Si   6.940306   1.371089   6.866305
Si   6.745352   4.093515   9.420698
Si   9.519329   1.351559   9.383457
Si   9.659837   4.153474   6.796601
Si   5.374805   5.402065   -0.006265
Si   5.551708   8.065151   2.912692
Si   8.151932   5.341787   2.834790
Si   8.254276   8.101797   0.070825
Si   6.803704   6.647208   1.405372
Si   6.959291   9.455933   4.384557
Si   9.146380   7.118163   4.188726
Si   9.466311   9.574259   1.423590
Si   5.547414   5.506365   5.698061
Si   5.521696   7.790701   8.014733
Si   7.797623   5.498770   7.960726
C   8.335546   8.512557   5.115760
C   6.416504   6.463423   7.095795
Si   6.729833   9.277385   9.483950
Si   9.436434   6.652136   9.508593
Si   9.389336   9.345605   6.608052
64
 i = 4 	 Energy = -254.610783 
Si   -0.063850   -0.036168   -0.069447
Si   0.011312   2.753759   2.607678
Si   2.834612   -0.042660   2.704369
Si   2.696942   2.682995   0.064514
Si   1.320247   1.297098   1.302293
Si   1.310405   3.932719   4.106094
Si   4.092897   1.418907   4.099278
Si   4.110153   4.070714   1.371499
Si   -0.030089   -0.201030   5.366118
Si   0.117542   2.656839   8.085185
Si   2.751373   -0.033811   8.195989
Si   2.626055   2.679927   5.438753
Si   1.352156   1.112799   6.606928
Si   1.487756   4.043639   9.550969
Si   4.090902   1.345625   9.568008
Si   4.003915   3.993606   6.739282
Si   0.180284   5.432321   0.007576
Si   -0.075858   8.109802   2.892973
Si   2.819082   5.285784   2.915350
Si   2.849220   7.997656   0.088748
Si   1.418923   6.782709   1.446052
Si   1.417423   9.439927   4.058631
Si   4.122382   6.705524   4.255817
Si   4.128034   9.384877   1.533586
Si   -0.087535   5.578241   5.264794
Si   -0.157360   8.111215   8.057534
Si   2.642033   5.329687   8.033030
Si   2.860180   8.209226   5.492505
Si   1.318130   6.801626   6.766105
Si   1.313920   9.308687   9.506742
Si   4.054588   6.710378   9.417373
Si   4.213577   9.421671   6.867446
Si   5.473402   -0.106082   0.100738
Si   5.544861   2.809743   2.742201
Si   8.070712   -0.068074   2.718018
Si   8.173555   2.685107   -0.017893
Si   6.717229   1.248769   1.333272
Si   6.791024   4.039721   4.366529
Si   9.429296   1.307983   4.007381
Si   9.582629   4.161282   1.439149
Si   5.486258   0.033748   5.519200
Si   5.459057   2.567312   8.030626
Si   8.173388   -0.181602   8.038612
Si   8.345884   2.678841   5.574254
Si   6.942553   1.376096   6.883181
Si   6.742025   4.090714   9.416248
Si   9.501578   1.352858   9.373752
Si   9.662587   4.138201   6.813237
Si   5.374070   5.410984   -0.021542
Si   5.558429   8.070769   2.900338
Si   8.150995   5.346241   2.830075
Si   8.248945   8.108158   0.053684
Si   6.798523   6.655930   1.394714
Si   6.957590   9.458457   4.387536
Si   9.147714   7.123563   4.195214
Si   9.466696   9.573000   1.421682
Si   5.555926   5.526418   5.690857
Si   5.529954   7.802406   8.024141
Si   7.804037   5.488798   7.965733
C   8.351736   8.509691   5.115518
C   6.429684   6.468485   7.095360
Si   6.739551   9.285085   9.485161
Si   9.448299   6.659404   9.503579
Si   9.388706   9.350111   6.611579
64
 i = 5 	 Energy = -254.607397 
Si   -0.073858   -0.035439   -0.083624
Si   0.012654   2.756661   2.596712
Si   2.830532   -0.040928   2.713652
Si   2.709420   2.689528   0.060762
Si   1.320352   1.297327   1.303532
Si   1.311852   3.940537   4.104784
Si   4.088780   1.438658   4.095214
Si   4.122124   4.084112   1.369223
Si   -0.021225   -0.202287   5.352290
Si   0.100786   2.662351   8.100882
Si   2.749172   -0.037773   8.202133
Si   2.633015   2.680962   5.438498
Si   1.367251   1.119097   6.608442
Si   1.498768   4.034069   9.539326
Si   4.074732   1.351882   9.559604
Si   4.007690   3.984706   6.747829
Si   0.179122   5.438500   0.014035
Si   -0.068754   8.108083   2.892656
Si   2.824490   5.292744   2.911053
Si   2.835110   8.007756   0.075553
Si   1.428081   6.789484   1.445847
Si   1.416005   9.440264   4.069107
Si   4.123587   6.709470   4.244667
Si   4.101786   9.386639   1.536484
Si   -0.093702   5.580767   5.257955
Si   -0.156805   8.098789   8.076370
Si   2.645712   5.327712   8.044135
Si   2.846643   8.206414   5.495183
Si   1.316008   6.793111   6.758670
Si   1.304356   9.294403   9.512488
Si   4.054554   6.715447   9.424424
Si   4.214273   9.428764   6.859443
Si   5.465756   -0.103154   0.126645
Si   5.556935   2.821019   2.757935
Si   8.047581   -0.070130   2.706693
Si   8.156516   2.670025   -0.025441
Si   6.711773   1.236143   1.319050
Si   6.802839   4.046212   4.369495
Si   9.438256   1.318305   4.026203
Si   9.583385   4.148353   1.448382
Si   5.472240   0.025114   5.503767
Si   5.460449   2.574832   8.030528
Si   8.169998   -0.187969   8.042413
Si   8.344706   2.693309   5.565636
Si   6.942826   1.373105   6.878516
Si   6.740152   4.085707   9.421210
Si   9.496415   1.350627   9.378511
Si   9.669045   4.126009   6.797973
Si   5.366346   5.420408   -0.018946
Si   5.549848   8.075057   2.898419
Si   8.170689   5.344222   2.815106
Si   8.234615   8.102574   0.053761
Si   6.808933   6.665001   1.400166
Si   6.963523   9.457446   4.378738
Si   9.139087   7.118056   4.198778
Si   9.477356   9.578813   1.428009
Si   5.551380   5.537307   5.693591
Si   5.533297   7.796090   8.031259
Si   7.798644   5.491303   7.980608
C   8.351957   8.510981   5.109589
C   6.428529   6.454979   7.102211
Si   6.743017   9.278305   9.485259
Si   9.439261   6.651237   9.513264
Si   9.380887   9.350238   6.617046
64
 i = 6 	 Energy = -254.607623 
Si   -0.095335   -0.028408   -0.092259
Si   0.030758   2.739881   2.600652
Si   2.824270   -0.044408   2.720976
Si   2.694040   2.686319   0.057678
Si   1.310514   1.304432   1.304744
Si   1.316848   3.934751   4.137425
Si   4.090088   1.444179   4.117630
Si   4.137851   4.076782   1.370381
Si   -0.032767   -0.196790   5.345256
Si   0.096720   2.675814   8.110000
Si   2.750975   -0.033432   8.215909
Si   2.639612   2.684422   5.445271
Si   1.377124   1.113853   6.613568
Si   1.494261   4.038592   9.526634
Si   4.075881   1.361290   9.559922
Si   3.990157   3.985710   6.745756
Si   0.176564   5.435758   0.014400
Si   -0.072258   8.107382   2.897601
Si   2.817709   5.295878   2.907442
Si   2.825303   8.012030   0.085147
Si   1.440639   6.785430   1.456658
Si   1.406973   9.450672   4.074992
Si   4.115455   6.714137   4.244960
Si   4.099250   9.383495   1.543237
Si   -0.093328   5.595585   5.264757
Si   -0.160213   8.104352   8.046072
Si   2.651526   5.324445   8.043575
Si   2.833420   8.205379   5.491440
Si   1.305612   6.797818   6.759892
Si   1.299504   9.290529   9.506497
Si   4.037476   6.733785   9.440848
Si   4.188479   9.438373   6.858009
Si   5.469093   -0.110349   0.115806
Si   5.539285   2.822367   2.760191
Si   8.057464   -0.077513   2.707675
Si   8.144563   2.672796   -0.017546
Si   6.709890   1.240016   1.316075
Si   6.800571   4.048906   4.389157
Si   9.439226   1.325522   4.025976
Si   9.578420   4.141833   1.432390
Si   5.460892   0.024448   5.499700
Si   5.460623   2.574167   8.022231
Si   8.169953   -0.195910   8.056648
Si   8.333831   2.681342   5.567335
Si   6.940944   1.371029   6.883079
Si   6.740891   4.085044   9.420351
Si   9.493216   1.331676   9.380945
Si   9.656092   4.126597   6.807191
Si   5.398163   5.415063   -0.007450
Si   5.556587   8.075259   2.886567
Si   8.164365   5.341437   2.824915
Si   8.218268   8.100136   0.065692
Si   6.821591   6.652616   1.413968
Si   6.968320   9.452622   4.382045
Si   9.133972   7.125851   4.207027
Si   9.479157   9.573598   1.431184
Si   5.550946   5.543833   5.688279
Si   5.534279   7.811032   8.032314
Si   7.792839   5.489619   7.982152
C   8.371666   8.519021   5.112369
C   6.429648   6.458061   7.098141
Si   6.742900   9.299555   9.480419
Si   9.440504   6.660547   9.505370
Si   9.358561   9.359418   6.622399
64
 i = 7 	 Energy = -254.606834 
Si   -0.099170   -0.034223   -0.084503
Si   0.022308   2.736331   2.604305
Si   2.818202   -0.040647   2.719631
Si   2.687794   2.684463   0.058376
Si   1.310520   1.314540   1.298360
Si   1.324979   3.939923   4.126296
Si   4.085138   1.447378   4.124131
Si   4.132952   4.079328   1.368086
Si   -0.044103   -0.214007   5.341787
Si   0.080904   2.673518   8.117751
Si   2.754026   -0.034884   8.212197
Si   2.641692   2.695440   5.451401
Si   1.371176   1.123452   6.625803
Si   1.501388   4.028977   9.527117
Si   4.076017   1.376373   9.574351
Si   3.996003   3.991448   6.745919
Si   0.175377   5.442114   0.026138
Si   -0.068006   8.111756   2.897392
Si   2.826340   5.316149   2.896048
Si   2.825551   8.024366   0.092282
Si   1.449318   6.781524   1.460302
Si   1.400917   9.452772   4.089575
Si   4.108565   6.717866   4.232663
Si   4.103568   9.374327   1.534615
Si   -0.111533   5.587927   5.275969
Si   -0.162115   8.112028   8.045918
Si   2.661067   5.330355   8.054334
Si   2.840146   8.193565   5.497450
Si   1.302792   6.791711   6.756648
Si   1.306381   9.307853   9.510678
Si   4.036519   6.724709   9.450206
Si   4.184672   9.447621   6.851631
Si   5.470776   -0.114780   0.106675
Si   5.546207   2.841004   2.747560
Si   8.045227   -0.085537   2.699068
Si   8.147618   2.684431   -0.013760
Si   6.705534   1.240832   1.323176
Si   6.796407   4.056171   4.388438
Si   9.460192   1.329933   4.017203
Si   9.589632   4.134480   1.435107
Si   5.464386   0.017785   5.502112
Si   5.481369   2.589282   8.018148
Si   8.173955   -0.202697   8.059451
Si   8.311740   2.687679   5.580270
Si   6.944396   1.372061   6.880625
Si   6.744411   4.072734   9.415557
Si   9.491999   1.337204   9.391016
Si   9.647421   4.140866   6.817690
Si   5.405609   5.430884   -0.004446
Si   5.568324   8.084049   2.897449
Si   8.161628   5.343306   2.844938
Si   8.214238   8.103171   0.066566
Si   6.829492   6.643957   1.419655
Si   6.969342   9.460908   4.367155
Si   9.128731   7.135053   4.204802
Si   9.486908   9.576389   1.435706
Si   5.543067   5.557348   5.662178
Si   5.522442   7.810801   8.024607
Si   7.789272   5.487713   7.983642
C   8.371413   8.521058   5.103652
C   6.446070   6.449945   7.102873
Si   6.725253   9.298535   9.473630
Si   9.445645   6.658898   9.492603
Si   9.388144   9.358317   6.623193
64
 i = 8 	 Energy = -254.604496 
Si   -0.099020   -0.049484   -0.098094
Si   0.026607   2.727826   2.608113
Si   2.817686   -0.046384   2.688911
Si   2.677593   2.688256   0.058898
Si   1.306038   1.292621   1.302960
Si   1.333055   3.946192   4.131451
Si   4.088548   1.442962   4.111005
Si   4.134053   4.069101   1.370626
Si   -0.051445   -0.221559   5.351712
Si   0.079509   2.685022   8.117621
Si   2.783984   -0.035142   8.206061
Si   2.630411   2.692164   5.436387
Si   1.383828   1.131559   6.628801
Si   1.499330   4.012503   9.536313
Si   4.083532   1.370527   9.582698
Si   4.003822   3.988514   6.747645
Si   0.171976   5.451246   0.040599
Si   -0.069745   8.121255   2.884849
Si   2.838482   5.324472   2.892121
Si   2.820681   8.031545   0.105563
Si   1.453366   6.770386   1.455089
Si   1.397610   9.462496   4.095676
Si   4.120563   6.729295   4.242472
Si   4.116644   9.391460   1.519052
Si   -0.116634   5.598310   5.284272
Si   -0.153277   8.109238   8.052542
Si   2.652933   5.309125   8.050772
Si   2.849051   8.171668   5.488166
Si   1.300208   6.800367   6.767888
Si   1.307106   9.298564   9.514837
Si   4.031961   6.724327   9.458220
Si   4.181754   9.439758   6.858906
Si   5.472827   -0.088448   0.093237
Si   5.546337   2.824223   2.748521
Si   8.054933   -0.078949   2.695430
Si   8.143559   2.684059   -0.016616
Si   6.711132   1.242864   1.316333
Si   6.801943   4.054343   4.383508
Si   9.467386   1.321069   4.023358
Si   9.590854   4.144428   1.420864
Si   5.456322   0.025738   5.492818
Si   5.473660   2.572286   8.014196
Si   8.176605   -0.208663   8.050322
Si   8.325407   2.687839   5.590529
Si   6.960689   1.357302   6.887728
Si   6.744594   4.067163   9.412887
Si   9.493400   1.346178   9.397161
Si   9.640731   4.131486   6.824116
Si   5.427161   5.418935   0.000945
Si   5.559179   8.085541   2.892115
Si   8.163905   5.329039   2.829327
Si   8.213454   8.109653   0.069978
Si   6.822452   6.660352   1.427233
Si   6.964593   9.481580   4.361197
Si   9.125155   7.125024   4.209946
Si   9.475309   9.569725   1.432599
Si   5.532443   5.559204   5.670408
Si   5.522358   7.813842   8.025476
Si   7.765859   5.480882   7.985406
C   8.367198   8.516942   5.112128
C   6.444123   6.452607   7.105800
Si   6.726392   9.307199   9.478366
Si   9.442123   6.657988   9.490021
Si   9.406940   9.359046   6.617141
64
 i = 9 	 Energy = -254.603839 
Si   -0.108382   -0.055509   -0.089992
Si   0.027724   2.719097   2.618088
Si   2.830172   -0.033917   2.692785
Si   2.673544   2.689009   0.059319
Si   1.293590   1.293130   1.302531
Si   1.327903   3.945598   4.123839
Si   4.073761   1.436787   4.103644
Si   4.128095   4.074221   1.374969
Si   -0.049734   -0.220651   5.334776
Si   0.075386   2.688321   8.128564
Si   2.792241   -0.028573   8.191187
Si   2.624367   2.684668   5.444585
Si   1.372260   1.117278   6.636647
Si   1.499691   3.994906   9.530488
Si   4.072264   1.378749   9.586743
Si   3.997458   3.988737   6.749205
Si   0.172514   5.460946   0.029319
Si   -0.063859   8.114742   2.891824
Si   2.836874   5.323100   2.882931
Si   2.821683   8.046720   0.097567
Si   1.454179   6.774938   1.467482
Si   1.399528   9.463253   4.092563
Si   4.115215   6.739434   4.242805
Si   4.110904   9.391957   1.497367
Si   -0.122170   5.603120   5.280474
Si   -0.152335   8.124447   8.054071
Si   2.657386   5.311792   8.055859
Si   2.844210   8.184564   5.491099
Si   1.307555   6.793045   6.752533
Si   1.305438   9.295641   9.509931
Si   4.032736   6.724869   9.461732
Si   4.176243   9.431968   6.852842
Si   5.496056   -0.084927   0.091137
Si   5.552318   2.837980   2.756352
Si   8.050616   -0.064727   2.682329
Si   8.141869   2.674986   -0.012530
Si   6.720025   1.245760   1.307774
Si   6.795110   4.057408   4.382661
Si   9.457931   1.316844   4.031202
Si   9.589732   4.128444   1.420331
Si   5.461877   0.029599   5.502752
Si   5.487036   2.578233   7.997044
Si   8.167816   -0.198979   8.067918
Si   8.344702   2.681640   5.582587
Si   6.958028   1.322127   6.884531
Si   6.755529   4.080543   9.409271
Si   9.500792   1.344240   9.402435
Si   9.641262   4.139262   6.807707
Si   5.425638   5.405441   -0.007214
Si   5.554996   8.081014   2.901199
Si   8.163705   5.329484   2.845224
Si   8.215289   8.124461   0.069210
Si   6.824773   6.660141   1.428198
Si   6.948376   9.490872   4.363940
Si   9.117924   7.114401   4.216009
Si   9.479402   9.568250   1.433895
Si   5.540477   5.560371   5.665175
Si   5.530780   7.814714   8.020478
Si   7.767364   5.467347   7.979670
C   8.366617   8.516906   5.116870
C   6.450893   6.444074   7.091768
Si   6.740337   9.302264   9.471618
Si   9.443996   6.667077   9.482649
Si   9.405843   9.376533   6.621081
64
 i = 10 	 Energy = -254.602577 
Si   -0.105935   -0.063093   -0.107493
Si   0.019360   2.726316   2.627335
Si   2.836051   -0.029921   2.704304
Si   2.671237   2.689566   0.072164
Si   1.268325   1.290392   1.294447
Si   1.320687   3.950240   4.110059
Si   4.071614   1.446465   4.102764
Si   4.135373   4.084313   1.389509
Si   -0.050816   -0.217920   5.326806
Si   0.082060   2.684256   8.119664
Si   2.820535   -0.032629   8.203892
Si   2.619750   2.673825   5.422109
Si   1.365628   1.102264   6.639084
Si   1.519075   4.000004   9.523907
Si   4.059723   1.384435   9.584698
Si   3.987990   3.987470   6.743411
Si   0.167156   5.462538   0.027043
Si   -0.076295   8.110901   2.890123
Si   2.831167   5.331836   2.895921
Si   2.802547   8.062144   0.098986
Si   1.444192   6.793273   1.477561
Si   1.387096   9.459601   4.090639
Si   4.116247   6.741090   4.231589
Si   4.111689   9.399953   1.477431
Si   -0.114830   5.606156   5.302251
Si   -0.143208   8.124909   8.061960
Si   2.659919   5.298718   8.041625
Si   2.827201   8.181784   5.491196
Si   1.305675   6.788258   6.754400
Si   1.306662   9.311216   9.510773
Si   4.025846   6.735255   9.467467
Si   4.182735   9.424855   6.851895
Si   5.493774   -0.087578   0.077729
Si   5.552423   2.829372   2.764494
Si   8.052231   -0.074922   2.678719
Si   8.156033   2.673431   -0.010944
Si   6.714420   1.251718   1.318506
Si   6.792118   4.066081   4.401477
Si   9.464779   1.311656   4.034529
Si   9.586984   4.122294   1.416589
Si   5.467103   0.016745   5.518022
Si   5.495357   2.572966   7.999207
Si   8.163819   -0.192057   8.074024
Si   8.345042   2.667690   5.600708
Si   6.939448   1.319383   6.884041
Si   6.761161   4.081277   9.402218
Si   9.502550   1.340853   9.399192
Si   9.645444   4.149088   6.813846
Si   5.425134   5.405015   -0.013003
Si   5.555282   8.070532   2.903453
Si   8.144149   5.334861   2.831512
Si   8.207053   8.138424   0.062798
Si   6.823490   6.665061   1.419628
Si   6.953144   9.477661   4.366307
Si   9.123229   7.107359   4.218533
Si   9.473964   9.591052   1.436110
Si   5.540854   5.556141   5.656978
Si   5.530543   7.825247   8.013506
Si   7.770611   5.460482   8.004333
C   8.352101   8.527113   5.131965
C   6.447359   6.451107   7.099566
Si   6.751673   9.287523   9.472657
Si   9.448742   6.673081   9.482538
Si   9.414066   9.367890   6.617989
64
 i = 11 	 Energy = -254.601917 
Si   -0.112042   -0.067192   -0.112164
Si   0.042366   2.707559   2.619894
Si   2.827118   -0.028055   2.714395
Si   2.671447   2.673455   0.073734
Si   1.279269   1.302705   1.302018
Si   1.324407   3.941349   4.100778
Si   4.068532   1.440859   4.107132
Si   4.133034   4.088490   1.379062
Si   -0.047220   -0.217498   5.329735
Si   0.081944   2.688253   8.110322
Si   2.825363   -0.026991   8.213740
Si   2.624096   2.674785   5.428516
Si   1.351374   1.112129   6.638530
Si   1.506193   3.990389   9.540728
Si   4.070750   1.374515   9.587952
Si   3.990879   4.003336   6.747914
Si   0.160951   5.448299   0.039518
Si   -0.078002   8.108128   2.885762
Si   2.833789   5.337398   2.892430
Si   2.796693   8.077173   0.094154
Si   1.447604   6.786522   1.494350
Si   1.382189   9.470551   4.089537
Si   4.119040   6.724848   4.226976
Si   4.111252   9.399683   1.478160
Si   -0.125254   5.595624   5.305246
Si   -0.129665   8.130099   8.066044
Si   2.644604   5.301535   8.035374
Si   2.821113   8.179573   5.485702
Si   1.318169   6.785531   6.758592
Si   1.297806   9.322835   9.500087
Si   4.015061   6.750338   9.470396
Si   4.179558   9.425811   6.855151
Si   5.494493   -0.108264   0.069611
Si   5.550788   2.835042   2.775424
Si   8.053017   -0.068251   2.668412
Si   8.152597   2.678790   0.000765
Si   6.700699   1.255120   1.316691
Si   6.786292   4.066884   4.421315
Si   9.470352   1.310630   4.036362
Si   9.575728   4.126551   1.414467
Si   5.454007   0.026854   5.522839
Si   5.491723   2.580001   7.978462
Si   8.154778   -0.196193   8.055728
Si   8.348927   2.668702   5.602997
Si   6.928709   1.320476   6.881573
Si   6.762998   4.079498   9.405870
Si   9.499799   1.345344   9.397744
Si   9.639053   4.148005   6.820316
Si   5.422918   5.402049   -0.014011
Si   5.557283   8.071229   2.882536
Si   8.152269   5.338656   2.826849
Si   8.192516   8.151135   0.057435
Si   6.818878   6.663525   1.421361
Si   6.957456   9.488820   4.364770
Si   9.128020   7.116564   4.214913
Si   9.470340   9.597912   1.425668
Si   5.540516   5.558172   5.671836
Si   5.526113   7.838205   8.024127
Si   7.762691   5.470699   7.993298
C   8.353070   8.534171   5.116573
C   6.453781   6.452036   7.102616
Si   6.766592   9.293677   9.472165
Si   9.463965   6.676593   9.503147
Si   9.407183   9.379011   6.612745
64
 i = 12 	 Energy = -254.604569 
Si   -0.109947   -0.051652   -0.108728
Si   0.029379   2.719081   2.622631
Si   2.827859   -0.031618   2.711198
Si   2.659613   2.651249   0.099021
Si   1.265537   1.297687   1.299230
Si   1.317968   3.951187   4.093572
Si   4.071562   1.452756   4.109834
Si   4.138739   4.096023   1.385809
Si   -0.034546   -0.215283   5.328212
Si   0.093307   2.683700   8.104754
Si   2.822325   -0.020222   8.213515
Si   2.623552   2.673544   5.427753
Si   1.339009   1.121522   6.634439
Si   1.503869   3.997153   9.550704
Si   4.069056   1.364029   9.590513
Si   3.992546   4.007863   6.747985
Si   0.174471   5.439813   0.035302
Si   -0.079472   8.113156   2.883726
Si   2.828320   5.330121   2.881252
Si   2.805102   8.087933   0.089844
Si   1.438113   6.790227   1.491507
Si   1.375580   9.473087   4.089055
Si   4.107139   6.737562   4.239770
Si   4.109139   9.409298   1.481338
Si   -0.110440   5.603150   5.316892
Si   -0.139574   8.138454   8.075016
Si   2.666370   5.292138   8.028951
Si   2.801173   8.185064   5.483342
Si   1.319675   6.789520   6.755938
Si   1.293626   9.330547   9.501417
Si   4.014729   6.758113   9.469971
Si   4.186880   9.432893   6.853218
Si   5.478309   -0.104730   0.063728
Si   5.546629   2.838094   2.783181
Si   8.062087   -0.058109   2.655438
Si   8.155658   2.687705   -0.023031
Si   6.712276   1.250107   1.335027
Si   6.801056   4.069549   4.426870
Si   9.462746   1.298214   4.043695
Si   9.574823   4.132884   1.424260
Si   5.449996   0.032785   5.514434
Si   5.497469   2.584122   7.988241
Si   8.153870   -0.211859   8.060637
Si   8.345688   2.668153   5.596398
Si   6.917987   1.324435   6.879552
Si   6.767998   4.089589   9.406236
Si   9.504460   1.342537   9.390966
Si   9.649246   4.161426   6.828501
Si   5.429050   5.411133   -0.013026
Si   5.572490   8.071247   2.868576
Si   8.154703   5.331967   2.820800
Si   8.182841   8.141511   0.065303
Si   6.805365   6.679987   1.411179
Si   6.960128   9.498729   4.354621
Si   9.141893   7.103784   4.214829
Si   9.451015   9.582748   1.410088
Si   5.540518   5.551384   5.678701
Si   5.532458   7.841089   8.013372
Si   7.764582   5.466307   7.998050
C   8.358257   8.544759   5.116318
C   6.443603   6.450801   7.122923
Si   6.762440   9.299725   9.478953
Si   9.448972   6.681650   9.502543
Si   9.390085   9.393173   6.615371
64
 i = 13 	 Energy = -254.606463 
Si   -0.112620   -0.052493   -0.120745
Si   0.028635   2.712880   2.618751
Si   2.824260   -0.029318   2.716503
Si   2.648385   2.658778   0.102124
Si   1.265673   1.304095   1.322537
Si   1.315969   3.964841   4.089686
Si   4.082365   1.457760   4.120994
Si   4.127674   4.092353   1.378896
Si   -0.016614   -0.207011   5.331946
Si   0.094668   2.677708   8.100866
Si   2.830253   -0.005613   8.207723
Si   2.615746   2.679205   5.423078
Si   1.339371   1.112948   6.646378
Si   1.484263   3.982694   9.542918
Si   4.076142   1.359855   9.600523
Si   4.003888   4.007292   6.738353
Si   0.157356   5.453241   0.042645
Si   -0.066643   8.101952   2.876719
Si   2.813205   5.346146   2.878565
Si   2.800867   8.082821   0.089007
Si   1.427456   6.796763   1.480185
Si   1.399819   9.484887   4.087248
Si   4.107356   6.739012   4.233911
Si   4.102212   9.423763   1.476650
Si   -0.117898   5.604161   5.331295
Si   -0.143787   8.126088   8.061933
Si   2.675636   5.311328   8.040669
Si   2.806722   8.186823   5.486658
Si   1.312606   6.780532   6.747383
Si   1.286246   9.329137   9.496325
Si   4.021383   6.756405   9.487435
Si   4.193418   9.445998   6.868440
Si   5.471682   -0.099475   0.068109
Si   5.557338   2.855133   2.789547
Si   8.048576   -0.057637   2.655781
Si   8.155434   2.697857   -0.010115
Si   6.716537   1.250477   1.326597
Si   6.794497   4.061808   4.422551
Si   9.453551   1.299737   4.054415
Si   9.566429   4.131372   1.422651
Si   5.450383   0.029092   5.528185
Si   5.497791   2.580566   7.986464
Si   8.161193   -0.198637   8.064512
Si   8.349140   2.656600   5.593818
Si   6.916639   1.330248   6.877489
Si   6.767980   4.093234   9.397849
Si   9.511109   1.339341   9.382193
Si   9.647289   4.172761   6.822660